0.jpg;0;
1.jpg;0;
2.jpg;0;
3.jpg;0;
4.jpg;0;
5.jpg;0;
6.jpg;0;
7.jpg;0;
8.jpg;0;
9.jpg;0;
10.jpg;0;
11.jpg;0;
12.jpg;0;
13.jpg;0;
14.jpg;0;
15.jpg;0;
16.jpg;0;
17.jpg;0;
18.jpg;0;
19.jpg;0;
20.jpg;0;
21.jpg;0;
22.jpg;0;
23.jpg;0;
24.jpg;0;
25.jpg;0;
26.jpg;0;
27.jpg;0;
28.jpg;0;
29.jpg;0;
30.jpg;0;
31.jpg;0;
32.jpg;0;
33.jpg;0;
34.jpg;0;
35.jpg;0;
36.jpg;0;
37.jpg;0;
38.jpg;0;
39.jpg;0;
40.jpg;0;
41.jpg;0;
42.jpg;0;
43.jpg;0;
44.jpg;0;
45.jpg;0;
46.jpg;0;
47.jpg;0;
48.jpg;0;
49.jpg;0;
50.jpg;0;
51.jpg;0;
52.jpg;0;
53.jpg;0;
54.jpg;0;
55.jpg;0;
56.jpg;0;
57.jpg;0;
58.jpg;0;
59.jpg;0;
60.jpg;0;
61.jpg;0;
62.jpg;0;
63.jpg;0;
64.jpg;0;
65.jpg;0;
66.jpg;0;
67.jpg;0;
68.jpg;0;
69.jpg;0;
70.jpg;0;
71.jpg;0;
72.jpg;0;
73.jpg;0;
74.jpg;0;
75.jpg;0;
76.jpg;0;
77.jpg;0;
78.jpg;0;
79.jpg;0;
80.jpg;0;
81.jpg;0;
82.jpg;0;
83.jpg;0;
84.jpg;0;
85.jpg;0;
86.jpg;0;
87.jpg;0;
88.jpg;0;
89.jpg;0;
90.jpg;0;
91.jpg;0;
92.jpg;0;
93.jpg;0;
94.jpg;0;
95.jpg;0;
96.jpg;0;
97.jpg;0;
98.jpg;0;
99.jpg;0;
100.jpg;0;
101.jpg;0;
102.jpg;0;
103.jpg;0;
104.jpg;0;
105.jpg;0;
106.jpg;0;
107.jpg;0;
108.jpg;0;
109.jpg;0;
110.jpg;0;
111.jpg;0;
112.jpg;0;
113.jpg;0;
114.jpg;0;
115.jpg;0;
116.jpg;0;
117.jpg;0;
118.jpg;0;
119.jpg;0;
120.jpg;0;
121.jpg;0;
122.jpg;0;
123.jpg;0;
124.jpg;0;
125.jpg;0;
126.jpg;0;
127.jpg;0;
128.jpg;0;
129.jpg;0;
130.jpg;0;
131.jpg;0;
132.jpg;0;
133.jpg;0;
134.jpg;0;
135.jpg;0;
136.jpg;0;
137.jpg;0;
138.jpg;0;
139.jpg;0;
140.jpg;0;
141.jpg;0;
142.jpg;0;
143.jpg;0;
144.jpg;0;
145.jpg;0;
146.jpg;0;
147.jpg;0;
148.jpg;0;
149.jpg;0;
150.jpg;0;
151.jpg;0;
152.jpg;0;
153.jpg;0;
154.jpg;0;
155.jpg;0;
156.jpg;0;
157.jpg;0;
158.jpg;0;
159.jpg;0;
160.jpg;0;
161.jpg;0;
162.jpg;0;
163.jpg;0;
164.jpg;0;
165.jpg;0;
166.jpg;0;
167.jpg;0;
168.jpg;0;
169.jpg;0;
170.jpg;0;
171.jpg;0;
172.jpg;0;
173.jpg;0;
174.jpg;0;
175.jpg;0;
176.jpg;0;
177.jpg;0;
178.jpg;0;
179.jpg;0;
180.jpg;0;
181.jpg;0;
182.jpg;0;
183.jpg;0;
184.jpg;0;
185.jpg;0;
186.jpg;0;
187.jpg;0;
188.jpg;0;
189.jpg;0;
190.jpg;0;
191.jpg;0;
192.jpg;0;
193.jpg;0;
194.jpg;0;
195.jpg;0;
196.jpg;1;0:690,57,53,43;713_69,711_86,694_75,736_79,711_79,715_81,715_81,697_86,695_90,715_74,715_74,730_89,714_92,714_92,703_78
197.jpg;1;0:694,56,49,48;718_68,699_75,697_79,696_82,709_89,723_85,716_86,738_93,716_79,720_80,703_86,700_90,720_74,720_74,733_98,719_92,719_92,711_96,708_78,717_77
198.jpg;1;0:705,56,44,45;722_68,726_69,725_86,725_86,725_86,722_78,722_78,728_86,713_89,725_80,725_74,725_74,724_92,724_92,736_77,714_77,724_76,724_76
199.jpg;1;0:708,54,45,50;730_86,717_56,725_57,727_79,727_79,733_86,727_86,718_90,730_81,710_90,739_100,744_98,730_74,730_74,729_92,729_92,720_96,730_64,730_64,719_78,728_76
200.jpg;2;1:601,84,34,28;612_92,615_97,615_106,604_87,616_93,629_108,626_102,611_102,611_102,623_92;0:712,58,48,46;716_60,732_69,734_87,734_87,731_79,731_87,722_91,751_94,735_81,735_81,735_75,735_75,735_75,735_75,716_87,749_91,734_93,734_93,723_78,733_77
201.jpg;1;0:715,60,45,41;719_75,739_89,740_72,742_89,735_90,735_82,744_83,739_83,718_94,721_89,739_77,739_77,738_95,738_95,727_80
202.jpg;1;0:719,60,44,41;737_81,737_81,721_87,742_90,739_73,739_73,743_74,739_83,739_83,745_90,738_92,738_92,739_83,743_85,721_95,724_91,742_78,730_82
203.jpg;1;0:725,64,44,40;743_73,743_73,747_74,743_82,745_90,748_90,765_97,761_99,740_76,746_85,746_85,733_95,745_79,759_96,745_97,745_97,756_83,734_82
204.jpg;1;0:727,62,45,44;747_73,735_94,762_102,731_103,751_74,747_83,747_83,750_91,753_91,746_93,766_100,733_74,751_86,731_92,749_98,749_98,738_83,746_82
205.jpg;1;0:734,68,42,45;756_78,743_99,752_78,750_81,755_96,752_97,771_104,752_88,756_90,755_84,755_84,744_87
206.jpg;2;2:614,100,39,31;626_113,636_114,640_109,617_111,620_115,635_122,632_107,636_110,645_118,618_118,648_124,638_118,623_122,635_117,635_117;0:728,62,52,53;757_81,757_81,761_82,763_93,740_112,741_65,730_98,763_99,763_99,760_100,756_101,776_108,772_111,771_65,760_68,753_70,756_92,761_95,747_66,741_100,741_83,760_88,745_76,759_77,747_92,755_89
207.jpg;1;0:743,76,40,41;764_87,765_100,761_107,764_94,764_94,771_89
208.jpg;1;0:746,85,44,44;756_89,770_110,768_115,765_116,768_103,781_122,774_97,756_107,765_104,765_104
209.jpg;1;0:752,87,41,44;760_90,769_97,769_97,775_110,757_117,768_108,771_116,775_116,775_116,768_117,783_127,772_110,771_104,771_104,771_104,783_123,761_102
210.jpg;1;0:755,87,44,44;781_113,782_117,779_117,761_118,777_118,773_119,772_109,776_106,776_106,788_124,781_99,764_108,787_108,774_107,774_107
211.jpg;1;0:754,94,47,52;772_101,765_103,783_126,781_127,779_131,775_132,775_132,772_115,774_121,778_119,778_119,766_122,774_118
212.jpg;1;0:758,109,42,41;766_111,776_118,786_125,782_135,782_135,776_136,776_136,796_145,774_123,776_129,780_136,784_129,780_130,779_125,779_125,784_117,779_143,767_129
213.jpg;1;0:757,107,48,47;777_119,777_119,787_126,775_123,777_130,777_130,781_138,784_138,784_138,777_140,777_140,798_145,786_131,781_131,765_141,780_126,780_126,792_146,782_116,780_145,780_145,792_129,768_130,778_128,778_128
214.jpg;1;0:761,112,44,47;777_121,778_138,778_138,790_151,778_131,781_139,784_139,784_139,777_141,777_141,763_152,781_133,785_132,774_144,770_148,780_127,780_127,791_147,784_120,771_123,792_131
215.jpg;3;3:626,144,29,51;634_146,642_149,642_153,647_167,649_153,645_154,646_158,629_159,643_167,634_175,637_176,649_176,643_179,645_147,645_147,646_171,646_171,646_177,646_177,634_157,648_162,648_162,648_162,632_167,640_174,639_183;0:750,92,56,83;772_126,778_128,775_121,775_121,778_128,775_139,777_159,776_133,764_159,790_132,778_148,782_167,799_137,778_148,778_117,775_132,782_133,779_134,774_142,774_142,796_122,778_128,780_164,759_166,788_148,774_158;0:757,111,44,47;775_121,775_121,760_126,775_139,783_146,763_116,775_132,782_133,774_142,774_142,788_153,772_126,779_134,762_142,794_149,767_149,778_128,778_128,778_128,788_148,781_119,789_131,766_132,766_132,775_131
216.jpg;1;0:754,110,43,46;759_116,772_122,772_132,779_141,779_141,776_140,772_142,772_142,758_150,769_126,776_134,776_134,790_142,759_143,791_148,765_149,775_128,775_128,785_149,775_148
217.jpg;1;0:754,112,43,47;772_122,773_133,782_146,758_146,775_135,776_141,773_142,773_142,791_149,760_143,765_149,785_149,777_129,777_129,764_132
218.jpg;1;0:752,87,55,55;763_100,778_111,760_113,780_113,757_114,763_122,756_126,765_129,777_130,777_130,780_120,760_97,776_92,772_132,781_118,781_118,769_97,793_118,768_116
219.jpg;1;0:765,81,47,51;808_89,782_101,792_103,784_106,787_109,784_115,784_115,780_85,787_102,787_102,788_91,784_103,784_103
220.jpg;1;0:768,84,44,47;796_103,794_113,793_115,798_115,796_117,796_117,789_108,797_110,789_118,792_104,792_104,791_124,800_99
221.jpg;1;0:766,86,53,52;770_112,796_117,794_119,799_119,797_121,777_90,790_101,791_112,794_119,790_122,790_122,781_96,788_105,799_114,812_120,785_91,812_92,794_114,799_114,786_126,780_127,803_94,793_108,793_96,806_112,780_111
222.jpg;1;0:772,82,49,59;790_104,788_120,791_120,794_121,800_122,798_124,798_124,791_115,813_127,813_127,813_127,785_133,788_108,799_117,803_97,799_117,813_122,798_91,785_94,779_129,794_111,794_99,806_115,806_115
223.jpg;1;0:770,98,47,47;777_101,790_107,772_111,788_117,788_117,799_125,812_130,790_118,794_125,798_128,798_128,788_111,799_120,799_120,774_136,801_138,778_132,801_109,793_114,793_114
224.jpg;1;0:770,92,51,48;777_100,792_105,772_111,792_115,790_121,776_96,814_98,795_123,795_123,799_125,799_125,791_126,791_126,790_109,796_117,801_118,795_112,795_112,795_132,782_116,808_115
225.jpg;1;0:771,86,53,52;794_100,794_100,773_107,792_109,795_110,796_115,816_93,798_118,794_121,794_121,802_120,802_120,792_104,798_113,779_131,804_132,798_107,777_121,798_95,810_111,810_111,784_111,794_110,794_110
226.jpg;1;0:774,81,48,56;781_91,797_95,795_99,804_115,804_115,781_132,781_132,788_130,789_125,807_127,781_128,801_102,783_119,801_90,800_123,787_106,787_106
227.jpg;2;4:639,116,30,31;644_134,650_137,651_140,642_118,658_121,652_122,655_123,655_123,656_127,645_139,655_142,664_132,652_137,657_132,648_133,653_132;0:774,68,58,57;783_91,801_96,790_99,801_98,821_109,818_99,800_88,800_88,800_88,802_104,808_108,808_108,800_109,800_109,818_99,786_113,798_92,804_108,805_96,805_100,805_100,811_75,793_79,805_96,778_75,783_85
228.jpg;1;0:780,66,52,57;804_88,808_98,804_81,804_81,804_81,802_85,805_92,812_101,804_102,804_102,786_118,786_78,791_80,785_85,808_94,795_73,808_89,808_89,808_76,807_110,793_92,804_92,804_92
229.jpg;1;0:782,60,55,55;786_62,786_62,813_92,807_92,833_100,806_75,806_75,804_80,807_86,814_89,814_96,806_96,806_96,787_73,810_96,810_96,832_108,795_70,787_108,810_83,810_83,810_70,823_87,823_87,795_86
230.jpg;1;0:780,56,56,53;805_88,810_88,805_81,793_83,793_83,821_83,821_83,808_66,807_78,807_78,808_85,804_83,808_85,811_90,801_82,812_85,807_93,807_90,812_85,801_92,792_67,814_92,802_76,804_71,804_71,801_82
231.jpg;1;0:776,59,55,55;779_61,801_90,797_92,810_94,800_73,800_85,803_93,807_93,799_94,799_96,799_96,779_72,798_78,808_87,803_95,788_69,803_80,803_80,805_68,817_85,817_85,789_85,789_85,799_83,799_83
232.jpg;1;0:773,61,54,55;795_86,795_86,796_93,795_96,797_75,795_80,798_87,801_95,801_95,805_96,805_96,797_97,776_74,803_76,801_89,805_89,821_109,821_109,807_90,784_72,801_82,801_82,802_71,814_87
233.jpg;1;0:773,62,57,58;799_89,787_90,787_90,815_90,799_95,802_73,801_108,802_85,802_85,802_85,799_89,798_99,806_99,806_99,796_83,802_97,795_88,795_88,802_97,778_99,801_79,784_75,807_92,807_92,796_99,796_95
234.jpg;1;0:777,60,54,55;798_85,798_85,802_90,800_91,800_96,800_96,799_79,802_85,808_95,808_95,804_88,804_88,823_108,823_108,804_82,805_69,818_85,818_85,790_86,790_86,801_84,801_84
235.jpg;1;0:777,49,63,58;805_66,806_75,806_75,806_75,806_75,794_78,823_76,823_76,809_75,806_76,806_85,806_85,803_70,805_66,836_66,788_71,813_88,813_88,783_100,781_92,827_98,781_64,803_86,803_76,803_76,835_94
236.jpg;1;0:786,42,57,56;798_44,808_69,808_69,812_75,814_77,808_79,810_57,810_57,810_57,808_63,811_69,811_79,811_79,831_92,831_92,836_49,815_71,815_71,794_57,828_70,828_70,799_71,812_69,812_69
237.jpg;1;0:789,42,56,55;810_64,822_66,800_44,813_56,813_56,813_56,817_57,811_61,814_68,817_77,821_77,821_77,813_80,813_80,833_91,833_91,838_47,817_71,795_56,816_63,816_63,816_63,823_55,818_51,802_69,814_66
238.jpg;1;0:794,42,53,54;816_66,815_55,815_55,815_55,805_68,817_75,820_76,820_76,820_76,815_80,815_80,805_68,833_67,816_68,833_67,824_78,824_78,826_54,801_83,819_62,826_76,820_56,825_70,813_59,820_56,836_91,836_91
239.jpg;1;0:791,43,59,47;828_59,795_70,830_74,805_86,820_53,820_53,820_53,824_74,819_78,819_78,801_84,825_54,817_58,820_66,828_76,828_76,824_68,800_55,823_60,823_60,823_60,804_82,832_55,808_66,808_66
240.jpg;1;0:799,38,57,55;824_79,821_65,821_65,825_63,824_53,824_53,824_53,828_74,812_67,829_54,825_66,828_48,808_82,828_60,828_60,828_60,821_59,828_69,828_69,835_69,833_78,824_79,833_78,846_46,806_87,825_75
241.jpg;1;0:802,32,56,61;838_73,828_61,835_55,825_61,825_61,833_70,828_61,828_49,828_49,846_61,846_61,829_63,829_72,832_43,832_43,812_79,832_57,825_55,819_39,808_51,832_57,809_35,838_73,804_37,809_83,813_36
242.jpg;1;0:804,32,60,66;809_68,829_60,836_69,836_69,820_63,808_94,836_82,816_79,832_48,832_48,832_48,832_48,836_50,836_43,827_88,845_86,833_62,836_56,842_75,842_75,811_51,823_39,829_54,837_65,837_65,843_64
243.jpg;1;0:809,34,60,60;846_74,836_63,839_71,823_65,854_64,838_45,855_46,835_52,835_52,838_60,835_64,842_72,842_72,840_66,844_76,844_76,845_68,835_75,813_39,864_86,819_36,847_61,839_52,863_38,816_89,856_43,856_43
244.jpg;1;0:813,45,57,59;837_71,837_71,855_72,841_79,855_72,825_73,825_73,841_54,837_59,837_59,840_67,844_80,844_80,846_84,846_84,842_74,837_83,862_55,865_95,849_68,842_60,846_67,834_71,848_82,857_51,857_51
245.jpg;1;0:807,37,70,63;812_71,872_69,848_70,841_65,841_65,841_65,841_65,841_60,860_66,845_48,845_48,844_86,837_59,841_67,822_85,868_89,870_74,844_69,822_75,873_89,820_42,811_87,812_78,812_78,844_55,868_41
246.jpg;1;0:814,27,71,59;860_34,853_62,829_63,817_67,848_49,849_55,819_60,848_65,851_66,826_31,847_58,856_66,856_66,880_78,880_78,852_58,823_46,852_37,852_37,867_56
247.jpg;2;5:654,75,30,36;665_84,657_87,658_91,666_93,657_98,669_104,669_104,671_78,672_81,666_90,658_102,669_108,669_108,672_107,668_78,664_83,668_85,668_90,662_95,662_95,672_95,675_84,667_95;0:820,21,67,63;849_64,870_51,870_51,837_51,837_51,854_45,849_64,854_59,850_36,860_64,853_71,852_56,858_58,851_51,850_60,855_53,855_31,832_69,860_64,848_48,848_48,849_40,860_53,854_38,878_59,861_59
248.jpg;1;0:823,16,58,58;848_43,848_43,866_47,866_47,835_48,835_48,851_41,851_41,847_33,847_33,857_50,856_60,848_46,854_54,851_55,844_38,856_40,855_36,846_60,846_60,853_34,859_42,859_65,857_20,859_58,858_55
249.jpg;1;0:820,14,61,63;844_59,864_45,864_45,849_40,849_40,844_59,853_54,856_56,849_54,849_54,845_54,854_58,845_44,855_39,845_31,850_25,867_63,845_31,831_23,849_48,842_52,851_32,841_36,857_40,873_54,867_70,867_70
250.jpg;1;0:818,22,64,61;821_25,857_49,857_64,850_61,853_61,841_66,845_54,855_57,844_65,844_65,867_79,867_79,842_44,849_49,849_49,850_33,865_54
251.jpg;1;6:629,85,53,42;645_101,655_104,649_100,655_104,663_93,667_105,656_123,656_123,645_108,659_121,659_88,653_91,641_119,656_88,660_117,654_109,642_108,642_98,648_97,634_103,634_103,631_106,631_101,678_95,678_95,645_119
252.jpg;1;7:818,32,70,70;848_55,848_55,851_73,863_94,854_36,859_77,854_82,836_95,869_38,855_76,846_66,848_84,832_45,866_44,852_48,852_48,869_70
253.jpg;1;7:832,37,58,65;841_61,852_73,843_94,852_68,860_85,866_87,884_91,884_91,884_91,860_62,883_44,868_93,859_69,859_69,859_55,859_55,875_75,875_75
254.jpg;0;
255.jpg;1;8:841,31,65,68;865_38,878_57,867_61,878_75,878_75,896_82,870_50,870_65,879_67,882_74,874_76,869_76,901_83,897_95,866_56,874_67,852_91,874_59,874_59,873_43,873_43,873_87,873_87,890_65,890_65
256.jpg;1;8:843,36,65,66;867_44,873_87,861_94,872_55,881_80,881_80,899_87,873_70,882_73,877_81,885_80,903_88,878_56,869_61,877_73,872_82,876_64,876_64,876_48,892_70
257.jpg;1;8:846,40,65,70;870_49,848_87,871_72,900_93,900_93,861_100,875_74,885_77,879_85,888_85,870_86,885_88,885_88,899_106,881_60,872_65,886_77,874_87,874_87,859_93,855_100,879_69,879_69,878_97,878_97,879_52
258.jpg;2;9:658,118,26,25;668_125,679_130,668_136,663_130,673_129;8:847,44,66,70;898_80,898_80,881_74,887_93,887_93,886_90,886_90,874_70,887_82,877_88,887_76,881_57,881_57,880_102,876_94,876_94,859_98,882_82,881_91,877_79,890_91,891_50,882_66,873_89,875_77,873_93
259.jpg;1;8:848,49,66,68;887_75,898_83,898_83,882_61,881_105,881_77,881_77,881_77,877_67,859_100,878_82,878_91,882_85,888_97,888_97,882_94,882_94,874_73,882_69,888_79,874_80,882_69,874_80,905_97,887_85,890_94
260.jpg;2;10:654,109,39,40;656_116,665_118,678_123,656_129,676_133,666_134,669_141,689_117,689_117,673_115,668_127;8:845,44,79,77;881_78,865_77,884_101,885_56,885_56,886_74,886_74,884_82,881_90,881_90,882_70,891_92,857_104,877_69,861_95,877_89,884_89,884_90,907_94,899_104,854_67,880_63,915_96,915_96,915_96,891_92
261.jpg;1;8:857,38,73,69;893_81,893_47,881_42,893_47,888_64,926_73,886_60,893_81,888_83,888_83,892_92,894_65,885_60,889_69,892_74,894_65,868_87,915_86,864_96,893_78,864_96,899_84,888_54,899_84,899_84,922_88,922_88
262.jpg;1;8:864,26,72,73;897_48,905_60,873_70,895_57,900_73,928_39,896_45,900_74,895_76,895_76,930_87,892_53,896_62,906_76,906_76,875_89,875_89,900_65,922_91,920_81,870_89,900_57,873_80,899_86,900_39,900_39
263.jpg;0;
264.jpg;1;11:654,92,42,46;676_129,671_117,677_111,679_124,679_124,677_111,682_135,682_100,677_111,672_111,672_111,682_111,679_116,680_120,674_98,679_132,671_121,679_101,680_106,678_116,689_110,682_123,678_109,682_125,666_108,660_128
265.jpg;1;12:875,20,72,70;918_65,914_32,913_48,913_48,913_48,914_58,914_58,907_71,907_71,909_55,918_65,908_38,908_38,908_38,908_38,908_38,919_70,913_65,913_65,919_70,905_45,918_48,908_66,921_58,905_52,905_52
266.jpg;2;13:669,102,22,26;683_105,676_120,683_123,680_125,680_117,680_106,680_122,683_111,683_111,683_111,683_111;12:881,17,72,72;911_65,917_29,916_47,916_47,916_47,917_57,917_57,910_70,913_61,911_36,911_36,931_78,924_56,909_51,916_63,916_63,921_64,920_47,909_51,907_44,918_38,911_54,916_65,916_65,884_45,908_67
267.jpg;1;12:881,10,75,74;926_40,919_54,916_65,944_71,888_74,951_14,950_18,914_30,908_46,908_46,923_57,923_57,910_58,913_61,913_61,932_78,947_14,914_45,919_57,919_57,921_32,926_49,919_42,917_72,917_72,919_23
268.jpg;1;12:881,3,79,74;914_25,899_37,919_63,913_29,919_63,915_31,921_31,921_48,929_40,916_36,915_51,915_51,921_45,925_46,917_45,916_20,934_70,946_13,946_13,928_30,925_31,951_62,923_21,889_64,930_32,913_20
269.jpg;2;14:663,84,28,34;672_87,682_102,666_98,670_105,676_89,676_101,683_109,672_96,672_96,677_96;12:891,4,72,66;953_6,948_11,947_14,956_27,960_55,953_60,932_25,921_16,921_16,915_32,931_44,957_66,922_34,933_50,929_18,917_23,934_37,928_39,926_27,926_27
270.jpg;2;14:665,92,33,32;683_100,691_104,689_105,680_101,685_119,682_120,682_120,669_103,680_105,680_105;12:891,5,80,76;941_10,938_34,910_62,943_59,963_20,942_33,929_44,939_44,934_56,938_56,938_56,929_28,929_28,934_57,960_71,936_28,924_33,941_48,935_49,927_60,933_37,935_19,930_69,911_44
271.jpg;2;15:398,92,41,44;436_95,429_106,432_110,432_105,428_103,418_112,402_113,421_131,418_132,407_119,409_99,427_122;12:897,2,77,83;935_71,935_71,936_38,938_47,932_45,930_61,930_61,942_57,942_57,931_27,932_55,937_55,937_55,926_44,942_46,953_13,922_14,927_58,945_49,944_39,928_33,939_29,962_72,926_44,958_62,962_72
272.jpg;1;12:900,1,82,74;936_63,945_53,945_53,933_36,945_53,945_53,932_53,933_18,932_53,933_48,938_47,938_47,928_35,929_49,964_56,947_40,941_20,974_37,946_32,930_25,944_37,949_32,962_64,936_15,928_35,962_64
273.jpg;2;16:390,77,35,33;421_89,409_93,393_95,419_84,407_91;12:897,1,77,63;947_25,929_45,934_11,939_40,939_40,934_41,934_41,930_41,932_47,932_47,946_48,946_48,931_17,935_29,949_41,944_42,902_57,942_13,947_33,913_9,940_32,955_18,917_30,917_30
274.jpg;2;17:665,78,20,30;675_90,680_93,676_100,673_82,670_93,673_98,673_103,673_103,676_87,676_87,676_87;12:901,2,80,72;946_41,936_26,946_41,933_45,933_45,947_45,947_45,940_19,940_19,935_39,941_31,935_8,935_8,949_30,940_39,948_22,938_56,963_49,929_25,929_25,932_15,934_21,938_56,911_9,941_10,941_10
275.jpg;1;12:905,2,76,63;951_46,943_18,943_18,968_48,948_16,944_30,944_30,936_15,939_7,939_7,939_7,934_23,934_23,937_43,937_43,950_39,944_39,940_25,944_39,924_57,948_13,951_46,935_37,934_42,952_30,934_26
276.jpg;0;
277.jpg;1;18:924,4,85,63;968_29,968_29,968_29,937_42,969_20,986_45,958_9,958_9,933_44,933_44,975_30,933_57,975_58,947_61,960_15,964_21,958_32,929_51,948_54
278.jpg;1;18:932,7,77,42;1004_21,945_33,942_34,993_41,993_41,993_41,971_17,979_19,975_20,975_20,945_43,975_20,975_20,975_20,982_27,982_27,967_29,967_29,941_39,983_13,949_35,964_37,992_22,992_21
279.jpg;1;18:935,0,84,53;965_2,986_5,974_38,974_38,978_12,967_4,978_12,984_26,984_26,971_22,971_22,977_19,977_19,969_28,969_28,972_7,952_40,966_7,985_11,974_27,987_22,987_22,966_23,989_2,941_34,941_34
280.jpg;1;18:935,7,79,44;975_36,975_36,985_25,985_25,983_20,972_20,969_26,969_26,978_17,978_17,941_15,967_21,988_20,974_25,985_10,988_20,956_36,950_32,981_24,962_48,943_31,951_38,939_37,988_42,939_37,940_26,940_26
281.jpg;1;18:932,0,91,49;986_2,981_12,989_5,989_11,988_27,988_27,986_22,986_22,975_6,972_28,970_4,972_28,980_19,1011_2,950_41,992_2,977_27,970_23,983_26,991_23,1012_3,951_29,1015_21,990_44,1017_19,969_7
282.jpg;2;19:665,70,25,26;681_73,685_73,669_75,672_75,680_84,684_87,687_87,679_75,678_79,680_87,668_91,678_92,674_87,681_81,681_81;18:938,0,91,57;993_4,981_41,981_41,948_11,985_14,992_14,975_2,996_2,990_2,974_6,974_6,991_30,976_31,980_19,984_21,976_31,979_9,989_24,1019_23,994_26,988_33,981_26,950_46,979_32,961_40,1014_47,1014_47
283.jpg;1;18:945,0,86,58;966_19,990_19,984_14,981_35,981_35,996_34,996_34,988_27,994_27,982_30,982_30,959_38,979_26,985_31,993_37,999_30,997_18,998_12,994_5,978_27,996_3,1000_2,979_40,959_28,983_53,957_34
284.jpg;2;20:656,73,40,36;680_76,676_88,676_88,681_88,669_88,669_88,677_77,677_77,677_86,681_80,670_91,675_94,684_93,680_97,673_98,677_102,677_102,674_76,672_82,679_83,679_94,668_98,673_86,671_79,687_88,680_90;18:945,0,94,60;1002_17,968_18,992_45,956_14,994_18,989_13,1001_34,1001_34,985_35,999_5,985_35,994_26,994_26,999_26,1022_2,983_27,981_34,950_5,993_9,1006_2,1002_4,998_37,997_32,1005_29,1003_12,953_52
285.jpg;2;20:661,77,27,25;665_79,682_79,679_80,666_81,675_86,677_90,667_90,681_93,684_92,677_97,680_98,676_82,665_98,674_98,674_98,673_94,667_88,667_88,678_88,678_88;18:945,0,100,60;1000_31,950_5,995_7,1005_15,1027_38,957_11,960_31,991_10,1002_3,1002_3,988_33,988_6,988_6,984_8,984_8,988_33,985_28,1008_27,986_3,1012_47,1002_25,996_24,996_24,1004_53,1001_35,1007_39
286.jpg;1;18:956,2,80,51;988_22,1005_7,1008_7,976_20,1017_22,999_14,988_5,993_5,993_5,996_5,1007_14,993_8,986_6,986_6,990_31,990_31,998_22,1004_24,991_25,991_25,988_8,986_25,1010_26,1014_40,1002_29,1003_34
287.jpg;0;
288.jpg;1;21:635,91,54,42;669_99,646_101,649_104,650_113,676_115,658_120,669_122,649_99,685_100,685_100,638_100,641_102,646_105,654_108,647_113,654_115,660_124,667_128,667_128,670_93,679_123,646_125,642_121,658_112
289.jpg;0;
290.jpg;0;
291.jpg;0;
292.jpg;0;
293.jpg;1;22:646,113,30,36;654_116,657_116,667_117,651_119,654_119,664_123,659_123,656_127,650_128,664_128,657_131,665_131,669_131,654_135,661_138,664_142,664_142,666_144,666_120,672_133,661_119,662_131,664_135,655_141,655_141,655_125
294.jpg;1;22:648,112,27,24;656_114,653_117,662_120,655_125,663_125,668_129,656_132,665_117,657_128,671_130,660_117,664_117,660_128,666_122
295.jpg;0;
296.jpg;0;
297.jpg;1;23:650,120,25,23;653_125,655_133,669_137,670_139,656_139,663_128,664_133,657_136,657_136,663_137,660_124,664_124,655_132,655_132,660_136,666_130,666_130
298.jpg;1;23:640,126,40,37;664_137,661_135,661_135,654_134,654_134,667_134,655_136,663_158,663_145,666_129,663_150,663_150,660_147,656_143,657_128,663_131,655_132,657_140,649_137,669_141,652_145,659_140,653_150,653_128,659_153,670_142
299.jpg;1;23:649,124,29,31;654_130,668_130,651_133,654_133,656_137,670_142,672_147,658_148,662_151,660_126,657_130,667_133,664_136,659_144,664_150,674_151,663_127,662_132,666_133,660_145,660_145,656_139,668_138
300.jpg;0;
301.jpg;1;24:654,126,33,28;665_128,679_140,674_146,664_146,678_147,666_131,657_141,673_143,670_131,683_137,667_142,671_149,682_149,675_136
302.jpg;0;
303.jpg;1;25:347,121,36,31;352_139,378_148,374_125,359_124,369_126,364_135,374_136
304.jpg;0;
305.jpg;0;
306.jpg;1;26:643,130,25,27;649_133,661_133,661_136,651_139,648_144,660_149,646_151,658_151,661_152,650_153,656_153,655_136,648_142,648_142,659_141
307.jpg;1;26:635,136,26,24;640_138,653_141,643_144,640_148,637_150,654_152,651_155,639_155,654_156,643_157,643_157,643_140,648_152,646_140,640_146,651_146
308.jpg;1;26:627,135,23,26;635_139,646_144,646_158,630_140,637_143,633_149,643_149,643_149
309.jpg;1;26:609,124,41,42;618_152,631_149,631_149,638_149,639_136,626_133,638_141,630_146,627_151,641_159,644_158,633_156,633_143,630_160,622_126,622_126,620_142,643_131,643_131,643_131,612_153,612_153,612_144,621_130,625_139,612_156
310.jpg;1;26:601,130,35,38;630_161,608_142,608_142,610_164,610_164,626_137,626_137,624_140,616_164,625_146,619_146,619_146
311.jpg;1;26:595,131,26,26;601_152,606_146,609_149,609_136,611_142
312.jpg;0;
313.jpg;0;
314.jpg;1;27:581,155,30,27;596_165,598_168,592_159,594_168,590_170,594_179,598_172,597_177,589_165,602_165,602_165
315.jpg;0;
316.jpg;0;
317.jpg;1;28:553,164,28,26;556_171,563_173,563_173,558_186,573_170,568_185,557_179
318.jpg;1;28:556,168,28,30;565_170,565_170,560_174,563_176,560_178,560_178,565_178,561_193,560_184,560_184,560_184,569_193,569_175,568_188,574_181,574_181,574_181
319.jpg;1;28:561,173,26,25;565_181,565_181,583_189,566_193,568_195,578_194,571_186,572_191
320.jpg;0;
321.jpg;1;29:576,164,25,40;579_190,587_198,579_178,589_169
322.jpg;0;
323.jpg;1;30:557,170,39,42;567_180,567_196,583_198,580_204,583_206,583_206,565_208,573_173,563_175,574_183,591_194,580_202,562_190,562_195,584_178
324.jpg;1;30:566,174,25,25;585_189,569_182,571_191,580_193,577_179,575_192,570_185,570_185,582_185,582_185
325.jpg;1;30:564,184,28,29;588_187,569_201,568_209,574_206,574_206,585_191,569_194,578_196,578_196
326.jpg;1;30:570,196,25,23;581_212,576_213,580_199,585_200,573_208,586_206
327.jpg;1;30:571,199,24,31;589_211,590_215,590_215,579_224,583_205,588_213,588_213
328.jpg;1;30:571,203,26,34;580_205,580_205,593_208,590_210,594_216,593_219,593_224,590_226,593_226,589_222,582_208,582_208,577_215,577_215,589_216,589_216,582_221,585_216
329.jpg;1;30:574,197,26,28;580_204,583_206,594_213,587_214,587_214,576_217,594_220,591_204,578_207,578_211,589_216,580_221,591_220,595_204,595_204,580_216,583_216,590_210
330.jpg;1;30:574,202,24,29;581_206,580_209,580_209,593_221,589_226,577_211,577_217,589_220,581_219,590_213,590_213
331.jpg;1;30:570,207,26,25;576_212,579_215,590_221,591_224,574_214,584_215,584_221,586_224,574_220,585_211,580_224,575_217,586_218
332.jpg;1;30:569,204,25,28;573_207,588_209,574_210,576_213,581_220,588_220,590_222,574_228,572_213,581_214,572_219,584_219,584_219,584_211,574_223,583_223,584_217,584_217,584_217
333.jpg;1;30:569,201,22,29;574_210,576_213,581_220,574_206,572_213,582_214,572_219,580_203,580_203,584_211,574_223,583_223,577_223,583_217,583_217
334.jpg;1;30:571,207,28,27;592_211,579_221,575_221,585_222,595_224,595_224,578_230,575_215,585_216,592_222,593_226,573_230,585_212,581_225,588_219,588_219
335.jpg;1;30:569,206,36,33;597_213,587_220,583_217,590_217,587_220,581_220,580_223,581_220,581_220,583_231,581_220,589_213,592_227,592_235,597_223,600_226,598_228,579_231,601_213,600_231,590_220,576_222,586_230,573_221,583_234,578_209
336.jpg;1;30:578,208,28,27;583_212,581_213,588_217,594_218,600_224,600_228,599_230,602_231,583_223,594_224,585_227,587_214,583_218,583_218,595_228,593_213,589_228,584_220
337.jpg;1;30:580,206,28,28;602_221,585_221,592_223,585_224,601_227,585_228,591_228,603_229,587_229,587_229,594_230,594_230,585_215,595_221,583_230,587_224,587_224,596_225,586_218,586_218,598_218,598_218,598_218
338.jpg;1;30:580,204,28,30;599_207,596_208,603_210,591_214,586_220,603_221,602_226,586_227,590_227,604_228,588_229,595_230,595_230,588_211,585_215,585_215,584_229,599_212,598_225,596_210,591_224,586_217,586_217,598_218
339.jpg;1;30:578,206,34,32;602_210,594_220,594_220,593_217,591_219,588_220,588_220,602_220,602_220,607_227,599_211,589_231,590_232,605_224,605_224,585_232,592_213,601_214,587_217,598_224,598_224,594_228,593_233,600_233,598_233,598_233
340.jpg;1;30:583,204,35,41;595_211,597_215,605_212,600_208,600_208,608_215,596_219,611_229,611_229,604_216,591_233,595_207,601_226,595_207,597_230,604_207,594_232,608_226,588_234,604_234,602_237,601_235,602_213,602_213,594_237,610_234
341.jpg;2;31:178,183,49,40;181_205,224_209,215_218,186_220,209_187,218_187,217_192,180_193,183_203,222_207,213_214,207_219,213_186,204_189,204_189,185_194,185_188,201_205,218_202,189_200;30:590,210,33,33;614_213,617_214,601_218,607_218,600_223,605_234,599_236,608_236,597_227,612_227,616_228,594_232,609_215,616_234,603_228,611_221,611_221
342.jpg;2;31:184,180,45,45;191_182,189_185,189_185,188_188,187_206,225_189,223_193,186_193,224_199,188_204,210_208,222_211,221_219,214_188,210_190,210_190,219_187,190_189,217_195,199_192,197_210,204_200,204_200;30:597,207,30,29;614_212,603_213,611_216,613_218,621_224,604_227,603_231,617_232,620_212,623_228,600_232,617_215,613_214,609_228,604_220,617_221,617_221
343.jpg;2;31:187,178,49,47;192_192,191_205,195_219,198_187,231_188,232_206,223_213,226_218,220_221,213_188,213_188,228_192,227_210,195_187,225_186,204_189,210_199,210_199,210_199;30:604,207,30,29;609_211,626_212,630_215,613_217,623_217,607_228,618_217,608_217,608_223,611_225,625_226,629_226,629_230,622_232,615_212,616_227,611_219,623_220,623_220
344.jpg;2;31:192,174,47,42;203_180,218_182,218_182,197_185,195_193,219_201,233_212,202_180,211_181,216_196;30:610,203,29,26;632_208,635_221,635_225,625_210,614_217,618_220,632_219,615_223,628_207,622_221,617_214,630_214,630_214
345.jpg;1;30:620,195,26,30;626_211,622_212,622_218,641_217,637_221,638_203,631_205,625_214,631_222,639_199,629_201,630_216,637_209,637_209
346.jpg;1;30:627,195,29,30;647_198,646_201,629_202,629_215,647_218,633_219,647_221,634_222,643_198,644_203,629_211,642_221,643_216,636_201,636_201,636_217,644_209,644_209,644_209
347.jpg;1;30:626,195,31,29;644_197,629_199,651_199,634_201,641_204,628_216,652_220,640_221,632_211,634_213,652_215,632_217,631_220,636_200,648_201,640_200,639_215,648_207,648_207,635_207
348.jpg;2;32:207,163,52,48;251_167,253_167,219_173,210_181,215_186,235_203,235_173,211_176,243_200,218_207,224_169,210_185,254_206,230_170,234_178,232_197,250_196,213_172,216_178,251_205,233_187,250_188,250_188,231_185;30:632,192,34,30;654_194,638_197,640_198,640_201,659_207,652_215,658_217,653_217,638_209,641_211,660_212,639_214,648_218,648_218,641_207,648_197,646_213,655_204,655_204,655_204,642_205
349.jpg;2;32:219,156,45,41;232_164,223_179,252_191,242_166,257_182,241_187,236_164,241_178,229_174;30:645,184,27,27;659_186,668_189,652_196,652_196,668_204,666_206,665_202
350.jpg;2;32:224,144,53,47;259_148,241_154,226_168,261_181,241_151,250_175,243_156,250_165;30:657,167,28,34;678_169,663_184,663_184,679_193,678_197,678_170,675_191,675_196,671_175,675_184,675_184
351.jpg;1;30:667,163,32,32;669_167,672_168,673_170,673_170,671_185,691_186,676_165,676_165,687_189,691_190,678_169,678_169,687_185,672_185,677_169,687_177,687_177
352.jpg;1;30:675,158,34,31;686_160,682_163,683_168,680_170,693_173,704_179,697_184,690_164,697_172,697_172
353.jpg;1;30:683,160,29,26;692_162,688_167,709_179,706_181,692_166,703_177,693_169
354.jpg;1;30:697,148,29,33;700_152,717_173,703_150,703_150,721_164,700_169,713_175,717_154,703_154,715_169,710_154,707_172
355.jpg;1;30:704,138,31,33;708_141,717_154,717_154,709_158,726_161,727_164,706_157,726_142,711_143,725_158,726_166,718_143,714_159
356.jpg;1;30:708,123,33,34;718_128,725_128,715_131,712_141,737_142,720_145,736_148,733_152,711_131,733_132,717_133,713_133,732_148,724_134,720_149,724_141,724_141