2.jpg;0;
4.jpg;0;
5.jpg;0;
196.jpg;1;-1:690,57,53,43
197.jpg;1;-1:694,56,49,48
198.jpg;1;-1:705,56,44,45
199.jpg;1;-1:708,54,45,50
200.jpg;2;-1:601,84,34,28;-1:712,58,48,46
201.jpg;1;-1:715,60,45,41
202.jpg;1;-1:719,60,44,41
203.jpg;1;-1:725,64,44,40
204.jpg;1;-1:727,62,45,44
205.jpg;1;-1:734,68,42,45
206.jpg;2;-1:614,100,39,31;-1:728,62,52,53
207.jpg;1;-1:743,76,40,41
208.jpg;1;-1:746,85,44,44
209.jpg;1;-1:752,87,41,44
210.jpg;1;-1:755,87,44,44
211.jpg;1;-1:754,94,47,52
212.jpg;1;-1:758,109,42,41
213.jpg;1;-1:757,107,48,47
214.jpg;1;-1:761,112,44,47
215.jpg;3;-1:626,144,29,51;-1:750,92,56,83;-1:757,111,44,47
216.jpg;1;-1:754,110,43,46
217.jpg;1;-1:754,112,43,47
218.jpg;1;-1:752,87,55,55
219.jpg;1;-1:765,81,47,51
220.jpg;1;-1:768,84,44,47
221.jpg;1;-1:766,86,53,52
222.jpg;1;-1:772,82,49,59
223.jpg;1;-1:770,98,47,47
224.jpg;1;-1:770,92,51,48
225.jpg;1;-1:771,86,53,52
226.jpg;1;-1:774,81,48,56
227.jpg;2;-1:639,116,30,31;-1:774,68,58,57
228.jpg;1;-1:780,66,52,57
229.jpg;1;-1:782,60,55,55
230.jpg;1;-1:780,56,56,53
231.jpg;1;-1:776,59,55,55
232.jpg;1;-1:773,61,54,55
233.jpg;1;-1:773,62,57,58
234.jpg;1;-1:777,60,54,55
235.jpg;1;-1:777,49,63,58
236.jpg;1;-1:786,42,57,56
237.jpg;1;-1:789,42,56,55
238.jpg;1;-1:794,42,53,54
239.jpg;1;-1:791,43,59,47
240.jpg;1;-1:799,38,57,55
241.jpg;1;-1:802,32,56,61
242.jpg;1;-1:804,32,60,66
243.jpg;1;-1:809,34,60,60
244.jpg;1;-1:813,45,57,59
245.jpg;1;-1:807,37,70,63
246.jpg;1;-1:814,27,71,59
247.jpg;2;-1:654,75,30,36;-1:820,21,67,63
248.jpg;1;-1:823,16,58,58
249.jpg;1;-1:820,14,61,63
250.jpg;1;-1:818,22,64,61
251.jpg;1;-1:629,85,53,42
252.jpg;1;-1:818,32,70,70
253.jpg;1;-1:832,37,58,65
254.jpg;0;
255.jpg;1;-1:841,31,65,68
256.jpg;1;-1:843,36,65,66
257.jpg;1;-1:846,40,65,70
258.jpg;2;-1:658,118,26,25;-1:847,44,66,70
259.jpg;1;-1:848,49,66,68
260.jpg;2;-1:654,109,39,40;-1:845,44,79,77
261.jpg;1;-1:857,38,73,69
262.jpg;1;-1:864,26,72,73
263.jpg;0;
264.jpg;1;-1:654,92,42,46
265.jpg;1;-1:875,20,72,70
266.jpg;2;-1:669,102,22,26;-1:881,17,72,72
267.jpg;1;-1:881,10,75,74
268.jpg;1;-1:881,3,79,74
269.jpg;2;-1:663,84,28,34;-1:891,4,72,66
270.jpg;2;-1:665,92,33,32;-1:891,5,80,76
271.jpg;2;-1:398,92,41,44;-1:897,2,77,83
272.jpg;1;-1:900,1,82,74
273.jpg;2;-1:390,77,35,33;-1:897,1,77,63
274.jpg;2;-1:665,78,20,30;-1:901,2,80,72
275.jpg;1;-1:905,2,76,63
276.jpg;0;
277.jpg;1;-1:924,4,85,63
278.jpg;1;-1:932,7,77,42
279.jpg;1;-1:935,0,84,53
280.jpg;1;-1:935,7,79,44
281.jpg;1;-1:932,0,91,49
282.jpg;2;-1:665,70,25,26;-1:938,0,91,57
283.jpg;1;-1:945,0,86,58
284.jpg;2;-1:656,73,40,36;-1:945,0,94,60
285.jpg;2;-1:661,77,27,25;-1:945,0,100,60
286.jpg;1;-1:956,2,80,51
287.jpg;0;
288.jpg;1;-1:635,91,54,42
289.jpg;0;
290.jpg;0;
291.jpg;0;
292.jpg;0;
293.jpg;1;-1:646,113,30,36
294.jpg;1;-1:648,112,27,24
295.jpg;0;
296.jpg;0;
297.jpg;1;-1:650,120,25,23
298.jpg;1;-1:640,126,40,37
299.jpg;1;-1:649,124,29,31
300.jpg;0;
301.jpg;1;-1:654,126,33,28
302.jpg;0;
303.jpg;1;-1:347,121,36,31
304.jpg;0;
305.jpg;0;
306.jpg;1;-1:643,130,25,27
307.jpg;1;-1:635,136,26,24
308.jpg;1;-1:627,135,23,26
309.jpg;1;-1:609,124,41,42
310.jpg;1;-1:601,130,35,38
311.jpg;1;-1:595,131,26,26
312.jpg;0;
313.jpg;0;
314.jpg;1;-1:581,155,30,27
315.jpg;0;
316.jpg;0;
317.jpg;1;-1:553,164,28,26
318.jpg;1;-1:556,168,28,30
319.jpg;1;-1:561,173,26,25
320.jpg;0;
321.jpg;1;-1:576,164,25,40
322.jpg;0;
323.jpg;1;-1:557,170,39,42
324.jpg;1;-1:566,174,25,25
325.jpg;1;-1:564,184,28,29
326.jpg;1;-1:570,196,25,23
327.jpg;1;-1:571,199,24,31
328.jpg;1;-1:571,203,26,34
329.jpg;1;-1:574,197,26,28
330.jpg;1;-1:574,202,24,29
331.jpg;1;-1:570,207,26,25
332.jpg;1;-1:569,204,25,28
333.jpg;1;-1:569,201,22,29
334.jpg;1;-1:571,207,28,27
335.jpg;1;-1:569,206,36,33
336.jpg;1;-1:578,208,28,27
337.jpg;1;-1:580,206,28,28
338.jpg;1;-1:580,204,28,30
339.jpg;1;-1:578,206,34,32
340.jpg;1;-1:583,204,35,41
341.jpg;2;-1:178,183,49,40;-1:590,210,33,33
342.jpg;2;-1:184,180,45,45;-1:597,207,30,29
343.jpg;2;-1:187,178,49,47;-1:604,207,30,29
344.jpg;2;-1:192,174,47,42;-1:610,203,29,26
345.jpg;1;-1:620,195,26,30
346.jpg;1;-1:627,195,29,30
347.jpg;1;-1:626,195,31,29
348.jpg;2;-1:207,163,52,48;-1:632,192,34,30
349.jpg;2;-1:219,156,45,41;-1:645,184,27,27
350.jpg;2;-1:224,144,53,47;-1:657,167,28,34
351.jpg;1;-1:667,163,32,32
352.jpg;1;-1:675,158,34,31
353.jpg;1;-1:683,160,29,26
354.jpg;1;-1:697,148,29,33
355.jpg;1;-1:704,138,31,33
356.jpg;1;-1:708,123,33,34
357.jpg;1;-1:713,115,34,37
358.jpg;2;-1:277,88,45,47;-1:720,110,33,32
359.jpg;2;-1:276,80,47,44;-1:724,108,33,33
360.jpg;1;-1:734,103,34,31
361.jpg;1;-1:745,92,31,44
362.jpg;1;-1:757,87,34,37
363.jpg;1;-1:770,77,35,34
364.jpg;1;-1:782,69,37,36
365.jpg;2;-1:326,44,48,47;-1:796,55,35,37
366.jpg;2;-1:333,38,56,49;-1:807,51,37,31
367.jpg;2;-1:335,37,55,50;-1:805,32,49,51
368.jpg;2;-1:338,36,52,49;-1:821,45,40,37
369.jpg;1;-1:829,33,35,36
370.jpg;1;-1:832,29,39,37
371.jpg;1;-1:833,16,42,42
372.jpg;0;
373.jpg;1;-1:837,28,33,37
374.jpg;2;-1:325,27,59,56;-1:834,32,36,37
375.jpg;1;-1:832,33,40,39
376.jpg;2;-1:311,41,54,52;-1:830,34,42,40
377.jpg;1;-1:830,33,35,34
378.jpg;1;-1:830,21,49,60
379.jpg;1;-1:832,28,49,41
380.jpg;1;-1:834,30,38,38
381.jpg;1;-1:835,31,33,39
382.jpg;1;-1:831,32,37,39
383.jpg;1;-1:823,37,49,40
384.jpg;1;-1:821,39,37,40
385.jpg;1;-1:816,45,40,39
386.jpg;1;-1:809,41,44,45
387.jpg;1;-1:806,30,41,46
388.jpg;1;-1:810,23,41,47
389.jpg;1;-1:809,23,47,40
390.jpg;1;-1:805,20,50,45
391.jpg;1;-1:802,18,51,49
392.jpg;1;-1:810,21,40,45
393.jpg;1;-1:810,25,39,41
394.jpg;1;-1:809,20,44,44
395.jpg;1;-1:813,14,43,46
396.jpg;1;-1:816,12,44,43
397.jpg;1;-1:820,11,41,47
398.jpg;1;-1:822,2,43,48
399.jpg;1;-1:824,0,46,41
400.jpg;1;-1:830,4,44,33
401.jpg;0;
402.jpg;1;-1:836,0,54,31
403.jpg;1;-1:839,0,48,28
404.jpg;1;-1:842,1,38,23
405.jpg;1;-1:835,0,46,23
406.jpg;1;-1:832,1,47,24
407.jpg;1;-1:830,2,46,24
2129.jpg;0;
2130.jpg;1;-1:55,204,56,60
2131.jpg;1;-1:104,206,77,65
2132.jpg;1;-1:167,208,53,58
2133.jpg;1;-1:194,204,74,80
2134.jpg;1;-1:231,224,56,44
2135.jpg;4;-1:202,202,38,34;-1:229,226,61,63;-1:618,47,46,35;-1:643,72,38,49
2136.jpg;2;-1:197,226,85,75;-1:635,80,42,53
2137.jpg;0;
2138.jpg;5;-1:78,294,41,40;-1:166,199,34,39;-1:181,224,74,69;-1:591,45,48,36;-1:619,76,35,44
2139.jpg;5;-1:64,299,47,40;-1:160,203,30,41;-1:172,229,75,66;-1:589,53,46,34;-1:613,81,40,43
2140.jpg;5;-1:59,305,44,41;-1:151,212,35,36;-1:165,233,76,70;-1:582,51,47,39;-1:607,81,40,44
2141.jpg;5;-1:44,313,49,36;-1:130,210,49,43;-1:164,240,61,49;-1:576,43,44,45;-1:601,82,36,45
2142.jpg;2;-1:26,316,47,42;-1:117,213,53,46
2143.jpg;4;-1:4,327,45,31;-1:120,247,77,69;-1:551,64,58,35;-1:577,94,48,52
2144.jpg;4;-1:78,228,39,31;-1:101,252,72,64;-1:544,75,44,40;-1:569,103,40,49
2145.jpg;3;-1:70,251,79,70;-1:525,75,49,37;-1:549,104,39,46
2146.jpg;4;-1:23,217,65,45;-1:30,256,81,69;-1:503,82,53,36;-1:526,108,35,49
2147.jpg;0;
2148.jpg;0;
2149.jpg;0;
2150.jpg;0;
2790.jpg;2;-1:578,23,49,53;-1:677,109,21,33
2791.jpg;4;-1:576,20,51,53;-1:584,79,23,34;-1:671,105,33,35;-1:672,85,38,21
2792.jpg;4;-1:579,14,50,56;-1:584,74,21,37;-1:671,104,26,35;-1:676,86,36,21
2793.jpg;3;-1:583,21,49,49;-1:672,112,28,28;-1:681,87,33,19
2794.jpg;2;-1:597,15,45,55;-1:685,108,21,32
2795.jpg;1;-1:611,8,48,57
2796.jpg;2;-1:619,2,54,61;-1:699,94,24,37
2797.jpg;3;-1:622,3,64,63;-1:628,70,28,42;-1:698,100,28,44
2798.jpg;4;-1:626,12,57,65;-1:629,80,28,39;-1:699,92,41,17;-1:702,115,25,34
2799.jpg;1;-1:623,14,66,62
2800.jpg;5;-1:519,82,30,24;-1:620,16,73,58;-1:629,82,46,35;-1:700,112,35,44;-1:700,78,51,31
2801.jpg;4;-1:639,5,58,63;-1:644,71,29,42;-1:702,112,33,37;-1:702,78,46,35
2802.jpg;4;-1:638,0,63,70;-1:649,75,22,36;-1:702,108,34,38;-1:709,105,19,33
2803.jpg;4;-1:647,3,60,62;-1:650,71,29,43;-1:703,105,33,37;-1:707,81,36,21
2804.jpg;2;-1:649,2,60,52;-1:699,101,31,37
2805.jpg;2;-1:653,0,60,46;-1:704,88,27,41
2806.jpg;2;-1:658,4,59,49;-1:699,87,34,42
2807.jpg;4;-1:660,0,62,44;-1:662,49,33,50;-1:698,90,30,38;-1:703,64,30,22
2808.jpg;3;-1:663,49,36,51;-1:663,0,63,44;-1:694,90,33,39
2809.jpg;3;-1:664,50,38,50;-1:667,0,63,42;-1:691,90,34,39
2810.jpg;2;-1:670,48,34,53;-1:674,0,59,47
2811.jpg;3;-1:676,0,57,51;-1:676,55,34,56;-1:679,94,42,46
2812.jpg;2;-1:679,0,67,54;-1:679,76,37,51
2813.jpg;3;-1:681,112,28,28;-1:684,53,41,56;-1:686,0,71,53
2814.jpg;1;-1:699,2,72,42
2815.jpg;4;-1:684,80,37,47;-1:690,53,29,28;-1:709,44,44,58;-1:718,2,63,43
2816.jpg;2;-1:683,82,36,45;-1:718,42,50,64
2817.jpg;3;-1:678,89,42,47;-1:682,62,42,24;-1:724,48,56,67
2818.jpg;4;-1:675,89,43,48;-1:686,62,37,26;-1:735,52,61,66;-1:747,1,71,46
2819.jpg;3;-1:685,96,35,42;-1:755,53,54,70;-1:766,3,72,48
2820.jpg;2;-1:694,98,42,48;-1:784,59,54,63
2821.jpg;3;-1:713,100,41,43;-1:720,72,37,20;-1:814,56,61,74
2822.jpg;2;-1:736,96,42,42;-1:743,64,47,26
2823.jpg;1;-1:761,82,40,45
2824.jpg;2;-1:788,85,42,46;-1:797,58,34,20
2825.jpg;1;-1:808,75,51,53
2826.jpg;2;-1:135,4,976,231;-1:846,60,53,64
2827.jpg;1;-1:892,68,49,61
2828.jpg;1;-1:925,69,49,53
2829.jpg;1;-1:971,73,53,54
2830.jpg;1;-1:1030,67,44,53
2831.jpg;1;-1:1074,59,52,50
2833.jpg;1;-1:1154,39,58,57
2834.jpg;1;-1:1200,20,56,66
2835.jpg;0;
2914.jpg;1;-1:471,51,68,40
2915.jpg;1;-1:527,63,61,35
2916.jpg;0;
2917.jpg;0;
2918.jpg;0;
2919.jpg;0;
2920.jpg;0;
2921.jpg;0;
3726.jpg;0;
3727.jpg;1;-1:926,56,66,63
3728.jpg;0;
3729.jpg;0;
3730.jpg;0;
3731.jpg;0;
3732.jpg;0;
3733.jpg;3;-1:169,146,52,40;-1:546,114,81,31;-1:564,137,59,29
3734.jpg;1;-1:564,122,50,13
3735.jpg;1;-1:990,23,71,65
3736.jpg;1;-1:1033,94,33,18
3737.jpg;0;
3738.jpg;0;
3739.jpg;0;
3740.jpg;0;
3741.jpg;0;
3742.jpg;0;
4101.jpg;1;-1:916,98,27,72
4102.jpg;0;
4103.jpg;1;-1:927,101,33,70
4104.jpg;1;-1:938,106,30,76
4105.jpg;1;-1:948,101,41,87
4106.jpg;1;-1:951,101,51,94
4107.jpg;1;-1:969,96,40,96
4108.jpg;0;
4109.jpg;0;
4110.jpg;0;
4111.jpg;0;
4112.jpg;0;
4113.jpg;0;
4114.jpg;0;
4115.jpg;0;
4116.jpg;0;
4117.jpg;0;
4118.jpg;0;
4119.jpg;0;
4120.jpg;0;
4291.jpg;0;
4292.jpg;0;
4293.jpg;0;
4294.jpg;1;-1:608,132,26,27
4295.jpg;1;-1:610,136,25,27
4296.jpg;0;
4297.jpg;0;
4298.jpg;0;
4299.jpg;1;-1:596,132,40,33
4300.jpg;1;-1:587,126,43,47
4301.jpg;1;-1:594,139,31,31
4302.jpg;1;-1:594,149,33,30
4303.jpg;1;-1:583,149,35,37
4304.jpg;1;-1:580,146,24,43
4305.jpg;1;-1:574,151,20,28
4306.jpg;1;-1:563,151,28,26
4307.jpg;1;-1:555,149,34,42
4308.jpg;0;
4309.jpg;1;-1:530,153,32,29
4310.jpg;1;-1:517,144,26,34
4311.jpg;1;-1:507,148,22,32
4312.jpg;1;-1:493,148,25,35
4313.jpg;1;-1:481,153,23,28
4314.jpg;0;
4315.jpg;1;-1:452,149,38,42
4316.jpg;1;-1:452,152,24,31
4317.jpg;1;-1:448,151,28,33
4318.jpg;1;-1:443,147,26,31
4319.jpg;1;-1:434,142,28,36
4320.jpg;1;-1:416,144,47,40
4321.jpg;1;-1:411,148,31,36
4322.jpg;1;-1:389,152,27,34
4323.jpg;1;-1:374,158,31,32
4324.jpg;1;-1:359,161,34,34
4325.jpg;1;-1:346,149,34,50
4326.jpg;1;-1:329,156,68,41
4327.jpg;1;-1:334,149,37,46
4328.jpg;1;-1:325,146,39,47
4329.jpg;1;-1:327,151,37,37
4330.jpg;1;-1:324,158,34,37
4331.jpg;1;-1:320,158,40,38
4332.jpg;1;-1:321,154,41,39
4333.jpg;1;-1:321,148,47,50
4334.jpg;1;-1:324,155,47,45
4335.jpg;1;-1:327,153,40,40
4336.jpg;1;-1:328,151,38,41
4337.jpg;1;-1:331,150,37,45
4338.jpg;1;-1:340,146,41,49
4339.jpg;1;-1:338,151,39,41
4340.jpg;1;-1:340,151,48,44
4341.jpg;1;-1:343,156,51,46
4342.jpg;1;-1:350,150,51,53
4343.jpg;1;-1:353,157,43,43
4344.jpg;1;-1:356,158,44,45
4345.jpg;1;-1:362,148,52,45
4346.jpg;1;-1:362,148,47,47
4347.jpg;1;-1:366,152,51,47
4348.jpg;1;-1:364,151,64,53
4349.jpg;2;-1:24,167,28,24;-1:370,150,50,49
4350.jpg;2;-1:27,165,30,25;-1:376,152,46,43
4351.jpg;1;-1:406,143,57,50
4352.jpg;1;-1:402,148,58,52
4353.jpg;1;-1:424,140,54,50
4354.jpg;0;
4355.jpg;1;-1:488,134,62,62
4356.jpg;1;-1:493,142,46,50
4357.jpg;1;-1:521,127,58,58
4358.jpg;1;-1:524,117,67,58
4359.jpg;1;-1:522,119,71,57
4360.jpg;2;-1:210,135,32,27;-1:557,106,58,52
4361.jpg;2;-1:224,126,29,42;-1:564,96,65,70
4362.jpg;1;-1:565,98,63,71
4363.jpg;1;-1:576,100,58,65
4365.jpg;1;-1:574,119,65,62
4366.jpg;0;
4368.jpg;1;-1:66,157,1025,170
4369.jpg;1;-1:510,128,63,61
4370.jpg;1;-1:469,117,62,69
4371.jpg;0;
4372.jpg;0;
4373.jpg;0;
4374.jpg;0;
4375.jpg;0;
4376.jpg;0;
4377.jpg;0;
4378.jpg;0;
4380.jpg;0;
4381.jpg;0;
4382.jpg;0;
4383.jpg;0;
4384.jpg;0;
4385.jpg;0;
4386.jpg;0;
4387.jpg;0;
4388.jpg;0;
4389.jpg;0;
4390.jpg;0;
4391.jpg;0;
4392.jpg;0;
4393.jpg;0;
4394.jpg;0;
4395.jpg;0;
4396.jpg;0;
4397.jpg;0;
4398.jpg;0;
4399.jpg;0;
4400.jpg;0;
4401.jpg;0;
4402.jpg;0;
4403.jpg;0;
4404.jpg;0;
4405.jpg;0;
4406.jpg;0;
4407.jpg;0;
4408.jpg;0;
4409.jpg;0;
4410.jpg;0;
4460.jpg;0;
4461.jpg;1;-1:188,13,45,54
4462.jpg;1;-1:164,2,56,59
4463.jpg;0;
4464.jpg;0;
4465.jpg;0;
4466.jpg;0;
4467.jpg;0;
6220.jpg;1;-1:658,71,42,28
6221.jpg;0;
6222.jpg;0;
6223.jpg;0;
6224.jpg;0;
6225.jpg;0;
6226.jpg;1;-1:667,98,23,25
6227.jpg;1;-1:674,94,24,25
6228.jpg;1;-1:679,80,23,27
6229.jpg;1;-1:680,74,27,27
6230.jpg;1;-1:692,76,22,26
6231.jpg;1;-1:706,80,23,24
6232.jpg;1;-1:712,88,23,26
6233.jpg;0;
6234.jpg;0;
6235.jpg;0;
6236.jpg;1;-1:708,94,33,37
6237.jpg;0;
6238.jpg;1;-1:684,101,28,28
6239.jpg;1;-1:669,99,22,26
6240.jpg;1;-1:647,107,31,27
6241.jpg;1;-1:637,108,28,32
6242.jpg;0;
6243.jpg;1;-1:580,135,43,44
6244.jpg;1;-1:560,166,25,23
6245.jpg;1;-1:531,151,35,33
6246.jpg;0;
6247.jpg;1;-1:508,147,29,29
6248.jpg;1;-1:497,154,30,29
6249.jpg;1;-1:489,163,25,29
6251.jpg;1;-1:500,163,25,27
6252.jpg;1;-1:517,153,42,31
6253.jpg;1;-1:558,145,26,28
6254.jpg;0;
6255.jpg;1;-1:621,117,29,29
6256.jpg;1;-1:635,116,31,36
6257.jpg;1;-1:644,111,39,44
6258.jpg;1;-1:667,126,24,27
6259.jpg;1;-1:676,123,33,27
6260.jpg;1;-1:690,122,27,29
6261.jpg;1;-1:696,111,27,28
6262.jpg;1;-1:704,94,22,40
6263.jpg;1;-1:711,94,28,32
6264.jpg;1;-1:719,97,31,33
6265.jpg;1;-1:715,103,47,46
6266.jpg;1;-1:724,110,33,28
6267.jpg;1;-1:730,96,27,38
6268.jpg;1;-1:731,100,30,33
6269.jpg;1;-1:734,110,33,35
6270.jpg;1;-1:735,105,37,37
6271.jpg;1;-1:740,87,34,38
6272.jpg;1;-1:752,80,28,35
6273.jpg;1;-1:756,84,34,36
6274.jpg;1;-1:757,88,32,38
6275.jpg;1;-1:753,99,35,38
6276.jpg;1;-1:746,108,34,37
6277.jpg;1;-1:737,115,34,34
6278.jpg;1;-1:727,108,46,49
6279.jpg;1;-1:732,108,33,41
6280.jpg;1;-1:727,110,36,38
6281.jpg;1;-1:732,110,33,33
6282.jpg;0;
6283.jpg;1;-1:719,108,39,40
6284.jpg;1;-1:704,108,47,39
6285.jpg;1;-1:688,123,51,49
6286.jpg;1;-1:668,140,41,41
6287.jpg;0;
6288.jpg;0;
6289.jpg;1;-1:354,221,207,105
6290.jpg;1;-1:505,228,35,38
6291.jpg;1;-1:468,247,36,33
6292.jpg;1;-1:438,245,42,35
6293.jpg;1;-1:410,235,49,50
6294.jpg;1;-1:393,242,44,43
6295.jpg;1;-1:379,245,40,41
6296.jpg;1;-1:366,249,41,39
6297.jpg;1;-1:348,249,51,44
6298.jpg;1;-1:341,256,44,45
6299.jpg;1;-1:341,252,39,51
6300.jpg;1;-1:332,267,43,47
6301.jpg;1;-1:331,279,49,51
6302.jpg;1;-1:338,287,48,44
6303.jpg;1;-1:349,292,43,45
6304.jpg;1;-1:357,306,46,36
6305.jpg;0;
6306.jpg;1;-1:441,304,44,42
6307.jpg;1;-1:468,301,56,48
6308.jpg;1;-1:504,299,49,45
6309.jpg;1;-1:537,297,48,47
6311.jpg;1;-1:583,300,46,48
6312.jpg;1;-1:606,287,52,56
6313.jpg;1;-1:629,290,46,49
6314.jpg;1;-1:654,288,53,41
6315.jpg;1;-1:689,299,54,19
6316.jpg;1;-1:713,281,52,49
6317.jpg;1;-1:740,267,49,52
6318.jpg;1;-1:756,272,63,56
6319.jpg;1;-1:789,267,58,55
6320.jpg;1;-1:823,269,54,48
6321.jpg;1;-1:848,263,58,49
6322.jpg;1;-1:871,238,58,62
6323.jpg;1;-1:899,220,63,55
6324.jpg;1;-1:940,198,62,62
6325.jpg;1;-1:994,192,66,59
6326.jpg;0;
6327.jpg;1;-1:1102,176,65,60
6328.jpg;1;-1:1152,164,76,59
6329.jpg;1;-1:1196,155,65,68
6330.jpg;0;
6493.jpg;1;-1:794,99,44,41
6494.jpg;1;-1:805,94,55,55
6495.jpg;1;-1:829,87,46,44
6496.jpg;0;
6497.jpg;1;-1:871,87,51,58
6499.jpg;0;
6501.jpg;0;
6502.jpg;0;
6503.jpg;2;-1:1019,5,63,30;-1:1038,65,60,59
6504.jpg;1;-1:1066,80,54,58
6505.jpg;0;
6506.jpg;1;-1:1106,32,68,33
6507.jpg;0;
6508.jpg;0;
6509.jpg;0;
7517.jpg;1;-1:695,194,33,26
7518.jpg;1;-1:678,201,27,24
7519.jpg;1;-1:661,196,39,27
7520.jpg;1;-1:652,197,28,30
7521.jpg;1;-1:640,200,25,25
7522.jpg;0;
7523.jpg;1;-1:631,202,27,25
7524.jpg;1;-1:628,201,29,28
7525.jpg;1;-1:632,194,29,31
7526.jpg;1;-1:633,198,26,25
7527.jpg;1;-1:634,196,27,26
7528.jpg;1;-1:635,196,28,26
7529.jpg;1;-1:636,197,27,25
7530.jpg;1;-1:633,199,29,25
7531.jpg;1;-1:637,196,26,27
7532.jpg;1;-1:636,192,28,26
7533.jpg;1;-1:635,188,31,28
7534.jpg;1;-1:642,188,29,29
7535.jpg;1;-1:642,187,38,33
7536.jpg;1;-1:647,185,32,28
7537.jpg;1;-1:652,190,27,26
7538.jpg;1;-1:652,193,29,29
7539.jpg;1;-1:650,192,33,32
7540.jpg;1;-1:647,194,38,26
7541.jpg;1;-1:660,194,25,27
7542.jpg;1;-1:660,194,34,29
7543.jpg;1;-1:664,194,28,25
7544.jpg;1;-1:666,186,29,30
7545.jpg;1;-1:666,189,27,27
7546.jpg;1;-1:664,194,27,27
7547.jpg;1;-1:661,192,32,33
7548.jpg;1;-1:663,193,28,30
7549.jpg;1;-1:664,197,28,28
7550.jpg;1;-1:666,193,31,30
7551.jpg;1;-1:663,187,42,36
7552.jpg;1;-1:674,190,29,29
7553.jpg;1;-1:674,192,35,28
7554.jpg;1;-1:674,184,32,36
7555.jpg;1;-1:673,186,34,35
7556.jpg;1;-1:673,188,35,32
7557.jpg;1;-1:674,192,32,31
7558.jpg;1;-1:672,188,35,35
7559.jpg;1;-1:675,187,30,32
7560.jpg;1;-1:672,187,33,29
7561.jpg;1;-1:672,189,32,32
7562.jpg;1;-1:668,189,37,38
7563.jpg;1;-1:668,194,32,31
7564.jpg;1;-1:665,190,31,31
7565.jpg;1;-1:665,187,31,31
7566.jpg;1;-1:663,189,33,33
7567.jpg;1;-1:663,187,32,34
7568.jpg;1;-1:656,185,41,39
7569.jpg;1;-1:662,191,32,35
7570.jpg;1;-1:654,185,51,33
7571.jpg;1;-1:655,180,36,37
7572.jpg;1;-1:654,178,40,35
7573.jpg;1;-1:654,181,37,34
7574.jpg;1;-1:652,180,39,41
7575.jpg;1;-1:654,179,38,34
7576.jpg;1;-1:658,175,35,36
7577.jpg;1;-1:664,179,33,32
7578.jpg;1;-1:661,171,48,42
7579.jpg;1;-1:669,175,34,37
7580.jpg;1;-1:668,170,35,38
7581.jpg;1;-1:672,169,33,42
7582.jpg;1;-1:668,175,36,35
7583.jpg;1;-1:667,173,38,37
7584.jpg;1;-1:545,170,165,137
7585.jpg;1;-1:672,163,51,46
7586.jpg;2;-1:662,157,35,16;-1:678,168,41,39
7587.jpg;1;-1:679,167,41,39
7588.jpg;1;-1:679,163,38,39
7589.jpg;1;-1:677,165,39,40
7590.jpg;2;-1:647,158,44,17;-1:674,169,38,42
7591.jpg;1;-1:670,169,43,46
7592.jpg;1;-1:668,162,39,43
7593.jpg;1;-1:670,162,42,38
7594.jpg;0;
7595.jpg;2;-1:655,137,43,29;-1:676,164,51,42
7596.jpg;1;-1:680,163,37,45
7597.jpg;1;-1:678,161,43,43
7598.jpg;1;-1:678,159,43,44
7599.jpg;1;-1:674,158,51,46
7600.jpg;1;-1:683,162,42,42
7601.jpg;1;-1:684,156,48,44
7602.jpg;2;-1:667,151,38,19;-1:690,158,47,56
7603.jpg;1;-1:692,167,41,45
7604.jpg;1;-1:689,167,46,48
7605.jpg;1;-1:693,169,50,48
7606.jpg;1;-1:696,171,47,50
7607.jpg;1;-1:704,175,44,47
7608.jpg;1;-1:707,169,48,51
7609.jpg;1;-1:708,169,57,49
7610.jpg;1;-1:711,171,49,53
7611.jpg;1;-1:711,174,51,56
7612.jpg;1;-1:715,180,49,50
7613.jpg;1;-1:718,180,51,50
7614.jpg;1;-1:717,177,59,53
7615.jpg;2;-1:688,164,45,15;-1:724,172,50,56
7616.jpg;1;-1:727,162,52,59
7617.jpg;0;
7618.jpg;1;-1:741,169,58,60
7619.jpg;1;-1:744,174,59,56
7620.jpg;1;-1:755,167,53,54
7621.jpg;1;-1:752,156,60,60
7622.jpg;1;-1:765,156,59,60
7623.jpg;1;-1:774,164,55,58
7624.jpg;1;-1:783,163,61,64
7625.jpg;1;-1:794,164,60,60
7626.jpg;1;-1:796,158,81,74
7627.jpg;2;-1:767,153,51,15;-1:818,161,61,64
7628.jpg;1;-1:766,116,63,50
7629.jpg;1;-1:834,144,65,61
7630.jpg;0;
7631.jpg;1;-1:859,136,65,70
7632.jpg;1;-1:868,135,65,69
7633.jpg;0;
7634.jpg;2;-1:818,116,56,25;-1:828,96,35,22
7635.jpg;1;-1:826,97,69,43
7636.jpg;0;
7637.jpg;0;
7638.jpg;0;
7639.jpg;0;
7640.jpg;0;
7641.jpg;0;
7642.jpg;2;-1:918,100,65,17;-1:928,74,43,21
7643.jpg;2;-1:929,101,63,19;-1:937,72,48,30
7644.jpg;2;-1:934,102,68,23;-1:942,69,48,34
7645.jpg;2;-1:936,96,65,19;-1:946,65,43,31
7646.jpg;0;
7647.jpg;0;
7648.jpg;0;
7649.jpg;0;
7650.jpg;0;
7651.jpg;0;
7652.jpg;0;
7653.jpg;0;
7654.jpg;0;
7655.jpg;2;-1:969,69,74,32;-1:971,34,59,33
7656.jpg;2;-1:969,59,70,29;-1:976,23,60,37
7657.jpg;0;
7658.jpg;0;
7659.jpg;0;
7660.jpg;2;-1:980,59,76,32;-1:981,24,74,36
7661.jpg;2;-1:985,55,83,31;-1:996,23,70,28
7662.jpg;2;-1:990,60,88,32;-1:1003,20,75,45
7663.jpg;1;-1:999,63,76,30
7664.jpg;1;-1:999,60,79,30
7665.jpg;0;
7666.jpg;0;
7667.jpg;0;
7668.jpg;0;
7669.jpg;0;
7670.jpg;0;
7671.jpg;0;
7672.jpg;0;
7673.jpg;0;
7674.jpg;0;
7675.jpg;0;
7676.jpg;0;
7677.jpg;0;
7678.jpg;0;
7679.jpg;0;
7680.jpg;0;
7681.jpg;0;
7682.jpg;0;
7683.jpg;0;
7684.jpg;2;-1:653,50,95,29;-1:661,66,61,59
7685.jpg;0;
7686.jpg;2;-1:676,52,113,27;-1:695,73,56,52
7687.jpg;1;-1:718,66,322,156
7919.jpg;0;
7920.jpg;0;
7921.jpg;1;-1:682,176,33,30
7922.jpg;0;
7923.jpg;0;
7924.jpg;1;-1:673,172,25,24
7925.jpg;1;-1:668,172,28,36
7926.jpg;0;
7927.jpg;1;-1:664,162,25,23
7928.jpg;1;-1:662,166,27,26
7929.jpg;1;-1:661,172,26,25
7930.jpg;1;-1:660,176,31,29
7931.jpg;1;-1:663,165,30,40
7932.jpg;1;-1:661,167,28,37
7933.jpg;1;-1:660,165,39,36
7934.jpg;1;-1:671,177,25,30
7935.jpg;1;-1:677,176,30,31
7936.jpg;1;-1:677,178,40,38
7937.jpg;1;-1:679,181,38,44
7938.jpg;0;
7939.jpg;1;-1:686,192,29,27
7940.jpg;1;-1:688,197,27,23
7941.jpg;1;-1:689,200,28,27
7942.jpg;1;-1:684,201,33,35
7943.jpg;0;
7944.jpg;1;-1:691,194,33,28
7945.jpg;1;-1:696,193,29,25
7946.jpg;1;-1:698,193,30,25
7947.jpg;2;-1:700,190,31,27;-1:702,195,33,31
7948.jpg;1;-1:702,188,30,28
7949.jpg;1;-1:699,186,33,29
7950.jpg;1;-1:704,184,30,32
7951.jpg;1;-1:705,188,31,28
7952.jpg;1;-1:699,185,36,29
7953.jpg;1;-1:707,185,30,29
7954.jpg;1;-1:706,178,35,36
7955.jpg;1;-1:709,180,30,36
7956.jpg;1;-1:708,175,33,29
7957.jpg;1;-1:706,173,37,31
7958.jpg;1;-1:711,168,29,31
7959.jpg;1;-1:711,166,31,33
7960.jpg;1;-1:711,164,32,33
7961.jpg;1;-1:719,161,31,33
7962.jpg;1;-1:715,157,35,31
7963.jpg;1;-1:716,154,31,31
7964.jpg;1;-1:713,148,36,35
7965.jpg;1;-1:715,145,33,34
7966.jpg;1;-1:714,135,42,42
7967.jpg;1;-1:722,150,39,35
7969.jpg;1;-1:731,139,31,36
7970.jpg;1;-1:732,133,35,39
7971.jpg;1;-1:733,132,36,37
7972.jpg;1;-1:734,129,40,40
7973.jpg;1;-1:733,131,34,37
7974.jpg;1;-1:729,126,40,46
7975.jpg;1;-1:731,126,36,38
7976.jpg;1;-1:728,125,40,37
7977.jpg;1;-1:728,124,40,35
7978.jpg;1;-1:729,123,42,37
7979.jpg;1;-1:730,120,38,35
7980.jpg;2;-1:725,110,43,40;-1:734,144,21,23
7981.jpg;1;-1:722,105,42,42
7982.jpg;1;-1:726,105,39,40
7983.jpg;1;-1:727,108,41,37
7984.jpg;1;-1:731,103,41,39
7985.jpg;0;
7986.jpg;1;-1:728,92,55,47
7987.jpg;1;-1:732,95,49,46
7988.jpg;1;-1:736,94,42,42
7989.jpg;1;-1:733,81,53,69
7990.jpg;1;-1:736,85,49,48
7991.jpg;1;-1:728,73,58,74
7992.jpg;0;
7993.jpg;1;-1:737,84,44,41
7994.jpg;2;-1:379,124,36,28;-1:736,85,53,44
7995.jpg;1;-1:741,82,51,47
7996.jpg;1;-1:747,83,50,52
7997.jpg;1;-1:752,84,54,47
7998.jpg;1;-1:756,88,55,49
7999.jpg;1;-1:765,90,47,51
8000.jpg;1;-1:767,85,53,51
8001.jpg;1;-1:772,87,50,54
8002.jpg;1;-1:778,81,51,51
8003.jpg;1;-1:784,82,53,56
8004.jpg;1;-1:787,78,61,50
8005.jpg;1;-1:799,80,55,54
8006.jpg;1;-1:804,82,57,56
8007.jpg;1;-1:814,87,56,75
8008.jpg;0;
8009.jpg;1;-1:830,73,54,61
8010.jpg;1;-1:836,77,61,58
8011.jpg;1;-1:845,79,62,62
8012.jpg;1;-1:848,71,72,63
8013.jpg;1;-1:862,71,74,60
8014.jpg;1;-1:882,75,61,70
8015.jpg;0;
8016.jpg;0;
8017.jpg;0;
8018.jpg;0;
8019.jpg;0;
8020.jpg;0;
8021.jpg;0;
8022.jpg;0;
8023.jpg;0;
8024.jpg;0;
8025.jpg;0;
8026.jpg;0;
8027.jpg;0;
8028.jpg;0;
8029.jpg;0;
8030.jpg;0;
8574.jpg;1;-1:643,86,30,32
8575.jpg;1;-1:644,88,30,29
8576.jpg;1;-1:636,91,35,27
8577.jpg;1;-1:640,87,29,31
8578.jpg;2;-1:638,76,42,41;-1:639,85,31,30
8579.jpg;1;-1:639,83,31,27
8580.jpg;1;-1:644,85,32,30
8581.jpg;1;-1:647,85,33,32
8582.jpg;1;-1:650,87,29,29
8583.jpg;1;-1:525,89,142,129
8584.jpg;1;-1:641,87,32,32
8585.jpg;1;-1:638,88,32,32
8586.jpg;1;-1:638,92,31,32
8587.jpg;1;-1:638,92,34,34
8588.jpg;1;-1:638,92,35,35
8589.jpg;1;-1:646,94,29,31
8590.jpg;0;
8591.jpg;0;
8592.jpg;1;-1:647,78,32,31
8593.jpg;1;-1:645,74,38,36
8595.jpg;0;
8596.jpg;1;-1:649,87,33,34
8597.jpg;1;-1:651,87,33,35
8598.jpg;1;-1:656,83,33,32
8599.jpg;1;-1:659,76,34,37
8600.jpg;1;-1:665,73,36,36
8601.jpg;1;-1:661,76,58,57
8602.jpg;1;-1:664,82,37,38
8603.jpg;1;-1:663,87,37,35
8604.jpg;1;-1:661,82,46,42
8605.jpg;1;-1:661,85,42,41
8606.jpg;1;-1:665,83,36,39
8607.jpg;1;-1:661,79,48,42
8608.jpg;1;-1:667,75,42,44
8609.jpg;1;-1:668,80,49,37
8610.jpg;1;-1:663,78,54,55
8611.jpg;0;
8612.jpg;1;-1:665,82,38,42
8613.jpg;1;-1:659,81,48,43
8614.jpg;1;-1:501,89,222,165
8615.jpg;1;-1:670,76,47,48
8616.jpg;1;-1:677,80,53,51
8617.jpg;1;-1:686,82,49,49
8618.jpg;1;-1:692,86,50,48
8619.jpg;1;-1:699,88,46,49
8620.jpg;1;-1:698,89,52,48
8621.jpg;1;-1:695,87,62,47
8622.jpg;1;-1:706,80,45,54
8623.jpg;1;-1:709,82,44,55
8624.jpg;1;-1:708,84,56,61
8625.jpg;1;-1:719,84,50,57
8626.jpg;1;-1:720,87,61,54
8627.jpg;1;-1:738,88,50,53
8628.jpg;1;-1:749,84,52,52
8629.jpg;1;-1:757,80,57,56
8630.jpg;1;-1:762,70,56,59
8631.jpg;1;-1:765,63,61,58
8632.jpg;1;-1:769,50,65,65
8633.jpg;1;-1:778,48,64,65
8634.jpg;1;-1:796,44,59,59
8635.jpg;2;-1:807,32,69,67;-1:821,98,42,24
8636.jpg;1;-1:848,26,61,64
8637.jpg;1;-1:895,15,60,74
8638.jpg;0;
8639.jpg;1;-1:1006,3,75,60
9227.jpg;1;-1:663,135,40,28
9228.jpg;1;-1:664,126,27,27
9229.jpg;1;-1:659,125,25,28
9230.jpg;1;-1:656,124,37,35
9231.jpg;1;-1:649,123,26,27
9232.jpg;1;-1:645,123,30,34
9233.jpg;1;-1:642,123,31,31
9234.jpg;1;-1:641,127,29,30
9235.jpg;1;-1:628,119,39,39
9236.jpg;1;-1:636,122,31,36
9237.jpg;1;-1:639,127,36,36
9238.jpg;0;
9239.jpg;1;-1:647,136,26,27
9240.jpg;1;-1:646,135,29,27
9241.jpg;1;-1:647,134,30,28
9242.jpg;1;-1:648,133,29,28
9243.jpg;1;-1:650,130,29,30
9244.jpg;1;-1:652,128,26,30
9245.jpg;1;-1:562,148,117,96
9246.jpg;0;
9247.jpg;1;-1:660,119,35,30
9248.jpg;1;-1:662,120,31,32
9249.jpg;1;-1:656,121,29,32
9250.jpg;1;-1:636,121,44,38
9251.jpg;1;-1:631,111,47,44
9252.jpg;1;-1:631,115,36,35
9253.jpg;1;-1:632,111,34,33
9254.jpg;1;-1:634,107,33,35
9255.jpg;1;-1:636,101,33,37
9256.jpg;1;-1:636,101,35,39
9257.jpg;1;-1:635,108,36,37
9258.jpg;1;-1:633,110,33,36
9259.jpg;1;-1:627,108,33,36
9260.jpg;1;-1:624,107,31,36
9261.jpg;1;-1:618,103,39,40
9262.jpg;1;-1:618,101,35,34
9263.jpg;1;-1:615,98,40,40
9264.jpg;1;-1:625,94,37,42
9265.jpg;1;-1:655,98,23,36
9266.jpg;0;
9267.jpg;0;
9268.jpg;0;
9269.jpg;0;
9270.jpg;0;
9271.jpg;1;-1:1097,43,44,45
9272.jpg;1;-1:1118,24,60,66
9273.jpg;1;-1:1166,32,44,60
9274.jpg;1;-1:1195,37,61,62
9275.jpg;1;-1:1225,26,55,59
9276.jpg;1;-1:1247,15,32,55
9293.jpg;1;-1:1242,1,38,78
9294.jpg;0;
9295.jpg;0;
9296.jpg;0;
9297.jpg;0;
9298.jpg;0;
9299.jpg;0;
9300.jpg;0;
9301.jpg;0;
9302.jpg;1;-1:351,165,23,29
9303.jpg;0;
9304.jpg;0;
9305.jpg;0;
9306.jpg;0;
9307.jpg;0;
9308.jpg;0;
9309.jpg;0;
9310.jpg;0;
9311.jpg;0;
9312.jpg;0;
9313.jpg;0;
9314.jpg;0;
9315.jpg;0;
9316.jpg;0;
9317.jpg;0;
9318.jpg;0;
9319.jpg;0;
9320.jpg;0;
9321.jpg;0;
9322.jpg;0;
9323.jpg;0;
9324.jpg;0;
9325.jpg;0;
9326.jpg;0;
9327.jpg;0;
9328.jpg;0;
